# vtk DataFile Version 4.2
vtk output
ASCII
DATASET POLYDATA
POINTS 8 float
0 0 0 1 0 0 1 1 0 
0 1 0 0 0 1 1 0 1 
1 1 1 0 1 1 
VERTICES 8 16
1 0 
1 1 
1 2 
1 3 
1 4 
1 5 
1 6 
1 7 

POLYGONS 6 30
4 0 3 2 1 
4 4 5 6 7 
4 0 1 5 4 
4 1 2 6 5 
4 2 3 7 6 
4 3 0 4 7 

POINT_DATA 8
SCALARS scalars float
LOOKUP_TABLE default
0 1 2 3 4 5 6 7 
